TITLE="Rotor Forces"
VARIABLES="T" "CFIP" "CMIP" "CFDP" "CMDP" "CFVP" "CMVP"
ZONE T="BLADE" F=POINT, I=1351
  0     0.1661754244100965E+00   0.2426439783203518E-01   0.1615156710213302E+00   0.2841473362619881E-01   0.1615156710213302E+00   0.2841473362619881E-01
  1     0.2292610048141984E+00   0.2515256797759938E-01   0.2260959161015892E+00   0.2921379279902973E-01   0.2260959161015892E+00   0.2921379279902973E-01
  2     0.2567463900679714E+00   0.2938216879731979E-01   0.2534801620678143E+00   0.3338983479933291E-01   0.2534801620678143E+00   0.3338983479933291E-01
  3     0.2861606294763380E+00   0.3403919430580826E-01   0.2826689316603911E+00   0.3812864591052491E-01   0.2826689316603911E+00   0.3812864591052491E-01
  4     0.3090732952832941E+00   0.3787741280577450E-01   0.3054839444018395E+00   0.4194103938617161E-01   0.3054839444018395E+00   0.4194103938617161E-01
  5     0.3308260527972622E+00   0.4174833171840563E-01   0.3271518671372328E+00   0.4575472742030769E-01   0.3271518671372328E+00   0.4575472742030769E-01
  6     0.3523385863509255E+00   0.4583232746404092E-01   0.3485915959908354E+00   0.4973955995078542E-01   0.3485915959908354E+00   0.4973955995078542E-01
  7     0.3716145413095430E+00   0.4980157728299350E-01   0.3678054733775368E+00   0.5359293550775729E-01   0.3678054733775368E+00   0.5359293550775729E-01
  8     0.3839785052410549E+00   0.5280857714591264E-01   0.3801088534877425E+00   0.5650752370859047E-01   0.3801088534877425E+00   0.5650752370859047E-01
  9     0.3854527566514579E+00   0.5405850961978779E-01   0.3815149894125608E+00   0.5771220019366566E-01   0.3815149894125608E+00   0.5771220019366566E-01
 10     0.3762426394627738E+00   0.5345660182501563E-01   0.3722291587938156E+00   0.5711204564392895E-01   0.3722291587938156E+00   0.5711204564392895E-01
 11     0.3608804498589055E+00   0.5169703114495935E-01   0.3567918847384737E+00   0.5538224167695952E-01   0.3567918847384737E+00   0.5538224167695952E-01
 12     0.3448728016477425E+00   0.4971364389089766E-01   0.3407191243816642E+00   0.5342986270155326E-01   0.3407191243816642E+00   0.5342986270155326E-01
 13     0.3310077145022881E+00   0.4801562559774069E-01   0.3268018990118740E+00   0.5174763765926635E-01   0.3268018990118740E+00   0.5174763765926635E-01
 14     0.3186628701503897E+00   0.4652338452484880E-01   0.3144123025415355E+00   0.5026141448477008E-01   0.3144123025415355E+00   0.5026141448477008E-01
 15     0.3061912700110313E+00   0.4496133222594400E-01   0.3018945096171431E+00   0.4871213291348746E-01   0.3018945096171431E+00   0.4871213291348746E-01
 16     0.2932577446925040E+00   0.4326956839455044E-01   0.2889093429035570E+00   0.4704735534859046E-01   0.2889093429035570E+00   0.4704735534859046E-01
 17     0.2807775719569513E+00   0.4160804277643977E-01   0.2763760060369999E+00   0.4541855201724673E-01   0.2763760060369999E+00   0.4541855201724673E-01
 18     0.2693335312478066E+00   0.4008583186247391E-01   0.2648839960699573E+00   0.4392202874021130E-01   0.2648839960699573E+00   0.4392202874021130E-01
 19     0.2500903678402695E+00   0.3653819595702643E-01   0.2458543122201743E+00   0.4029120842584238E-01   0.2458543122201743E+00   0.4029120842584238E-01
 20     0.2413314363963733E+00   0.3598553610176732E-01   0.2368727586749989E+00   0.3981127868805664E-01   0.2368727586749989E+00   0.3981127868805664E-01
 21     0.2289760778825113E+00   0.3401889178913720E-01   0.2245217050730871E+00   0.3786644021326425E-01   0.2245217050730871E+00   0.3786644021326425E-01
 22     0.2183492371929521E+00   0.3246869192088446E-01   0.2138478329207875E+00   0.3635487912043123E-01   0.2138478329207875E+00   0.3635487912043123E-01
 23     0.2088880173646777E+00   0.3109012407954059E-01   0.2043453199491739E+00   0.3500552177071779E-01   0.2043453199491739E+00   0.3500552177071779E-01
 24     0.2001921084090500E+00   0.2981822044389402E-01   0.1956136636521073E+00   0.3375373777727063E-01   0.1956136636521073E+00   0.3375373777727063E-01
 25     0.1918037846178237E+00   0.2857337232410100E-01   0.1871857070091587E+00   0.3253442584810928E-01   0.1871857070091587E+00   0.3253442584810928E-01
 26     0.1838417729000267E+00   0.2737467328372081E-01   0.1791737053130607E+00   0.3137525933954786E-01   0.1791737053130607E+00   0.3137525933954786E-01
 27     0.1767690295079267E+00   0.2630481008771023E-01   0.1720474381458602E+00   0.3034755675876938E-01   0.1720474381458602E+00   0.3034755675876938E-01
 28     0.1707034709678394E+00   0.2538975668702687E-01   0.1659364463138473E+00   0.2946047929461282E-01   0.1659364463138473E+00   0.2946047929461282E-01
 29     0.1652825146210363E+00   0.2456944518704686E-01   0.1604769633210544E+00   0.2865710439603692E-01   0.1604769633210544E+00   0.2865710439603692E-01
 30     0.1601897661734043E+00   0.2378849953237422E-01   0.1553388361020520E+00   0.2790263756939379E-01   0.1553388361020520E+00   0.2790263756939379E-01
 31     0.1555253085428084E+00   0.2306736649591318E-01   0.1506163160477748E+00   0.2722620831170382E-01   0.1506163160477748E+00   0.2722620831170382E-01
 32     0.1515004895265801E+00   0.2245443273524828E-01   0.1465355189603782E+00   0.2665770761785381E-01   0.1465355189603782E+00   0.2665770761785381E-01
 33     0.1479766108550364E+00   0.2193759812353888E-01   0.1429770010202601E+00   0.2616326879388613E-01   0.1429770010202601E+00   0.2616326879388613E-01
 34     0.1445698251983821E+00   0.2144928596504508E-01   0.1395547388411027E+00   0.2568225782153967E-01   0.1395547388411027E+00   0.2568225782153967E-01
 35     0.1411992246996770E+00   0.2096200489435976E-01   0.1361650348860538E+00   0.2521483363397019E-01   0.1361650348860538E+00   0.2521483363397019E-01
 36     0.1382710866987824E+00   0.2053253790190879E-01   0.1331989747212975E+00   0.2482854896966554E-01   0.1331989747212975E+00   0.2482854896966554E-01
 37     0.1369124084492168E+00   0.2008952657569499E-01   0.1317846342666814E+00   0.2448227494108289E-01   0.1317846342666814E+00   0.2448227494108289E-01
 38     0.1344898245111233E+00   0.1998743549769913E-01   0.1293561615316687E+00   0.2433970931997246E-01   0.1293561615316687E+00   0.2433970931997246E-01
 39     0.1336710222966307E+00   0.1979857511830647E-01   0.1285070152835805E+00   0.2418053440810676E-01   0.1285070152835805E+00   0.2418053440810676E-01
 40     0.1325028729616776E+00   0.1962186219759987E-01   0.1273132440492358E+00   0.2403311930364087E-01   0.1273132440492358E+00   0.2403311930364087E-01
 41     0.1313459650827859E+00   0.1945437731226298E-01   0.1261300994143575E+00   0.2391011978642748E-01   0.1261300994143575E+00   0.2391011978642748E-01
 42     0.1303937119726388E+00   0.1933183914650081E-01   0.1251759177620484E+00   0.2381167547664318E-01   0.1251759177620484E+00   0.2381167547664318E-01
 43     0.1295270563580322E+00   0.1923835132695486E-01   0.1243509010816127E+00   0.2369550385774271E-01   0.1243509010816127E+00   0.2369550385774271E-01
 44     0.1284146699858667E+00   0.1912082764368721E-01   0.1233110626378707E+00   0.2352686274930567E-01   0.1233110626378707E+00   0.2352686274930567E-01
 45     0.1269187220089578E+00   0.1895479028372265E-01   0.1218929396063473E+00   0.2331492213923177E-01   0.1218929396063473E+00   0.2331492213923177E-01
 46     0.1252020811763411E+00   0.1876370436446637E-01   0.1202583254743289E+00   0.2308006884224414E-01   0.1202583254743289E+00   0.2308006884224414E-01
 47     0.1233915957093580E+00   0.1856572072376945E-01   0.1185589147973276E+00   0.2280141051971594E-01   0.1185589147973276E+00   0.2280141051971594E-01
 48     0.1213044788103522E+00   0.1832782780947546E-01   0.1166229763527093E+00   0.2242916413786611E-01   0.1166229763527093E+00   0.2242916413786611E-01
 49     0.1186491514562051E+00   0.1799643054087879E-01   0.1141354750407938E+00   0.2194128553631276E-01   0.1141354750407938E+00   0.2194128553631276E-01
 50     0.1154190268843856E+00   0.1756337044071939E-01   0.1110606749888526E+00   0.2136605725741218E-01   0.1110606749888526E+00   0.2136605725741218E-01
 51     0.1119370754711455E+00   0.1707748978083535E-01   0.1077210954636792E+00   0.2074797988903672E-01   0.1077210954636792E+00   0.2074797988903672E-01
 52     0.1084969584091900E+00   0.1658948765957952E-01   0.1044327496057760E+00   0.2010592274169966E-01   0.1044327496057760E+00   0.2010592274169966E-01
 53     0.1050673891382651E+00   0.1610128466248091E-01   0.1011749685998663E+00   0.1943305352076853E-01   0.1011749685998663E+00   0.1943305352076853E-01
 54     0.1013807285572948E+00   0.1557469324106101E-01   0.9765916848272904E-01   0.1872782500146555E-01   0.9765916848272904E-01   0.1872782500146555E-01
 55     0.9799269339751568E-01   0.1477747668647259E-01   0.9400459077251913E-01   0.1847293737974270E-01   0.9400459077251913E-01   0.1847293737974270E-01
 56     0.9209328722695255E-01   0.1433863955043908E-01   0.8843896938520486E-01   0.1757615693686429E-01   0.8843896938520486E-01   0.1757615693686429E-01
 57     0.8767890418115280E-01   0.1361428394262995E-01   0.8436620452464759E-01   0.1638934723391671E-01   0.8436620452464759E-01   0.1638934723391671E-01
 58     0.8274380510915251E-01   0.1290649500590405E-01   0.7929469433269351E-01   0.1587392318509250E-01   0.7929469433269351E-01   0.1587392318509250E-01
 59     0.7767407221243579E-01   0.1216911063992571E-01   0.7202010524135455E-01   0.1824217644777286E-01   0.7202010524135455E-01   0.1824217644777286E-01
 60     0.7262559000046695E-01   0.1142452135337295E-01   0.6919737951524119E-01   0.1435477115265433E-01   0.6919737951524119E-01   0.1435477115265433E-01
 61     0.6785515095214625E-01   0.1071615622145886E-01   0.6067692431541087E-01   0.1813494901305429E-01   0.6067692431541087E-01   0.1813494901305429E-01
 62     0.6351860985951223E-01   0.1007077291527264E-01   0.4159985582745733E-01   0.3609321942658793E-01   0.4159985582745733E-01   0.3609321942658793E-01
 63     0.5960599284249108E-01   0.9484412549120639E-02   0.5459575375133403E-01   0.1423354087695257E-01   0.5459575375133403E-01   0.1423354087695257E-01
 64     0.5611047769144380E-01   0.8951497496758382E-02   0.4816036074222672E-01   0.1679320422817806E-01   0.4816036074222672E-01   0.1679320422817806E-01
 65     0.5317611580444075E-01   0.8493399420056093E-02   0.3746060761795821E-01   0.2537290293961936E-01   0.3746060761795821E-01   0.2537290293961936E-01
 66     0.5100466084874178E-01   0.8144539435814982E-02   0.4340328412701325E-01   0.1503066851025642E-01   0.4340328412701325E-01   0.1503066851025642E-01
 67     0.4966789832167712E-01   0.7917958565984177E-02   0.1752152324553842E-01   0.4012007054770637E-01   0.1752152324553842E-01   0.4012007054770637E-01
 68     0.4911711542538160E-01   0.7803910174296271E-02  -0.4148122238174153E-01   0.1037417045144235E+00  -0.4148122238174153E-01   0.1037417045144235E+00
 69     0.4934966220293394E-01   0.7797980508573847E-02   0.3732782337244716E-01   0.1867175278398832E-01   0.3732782337244716E-01   0.1867175278398832E-01
 70     0.5049192796077678E-01   0.7917949117893466E-02  -0.3151225459019456E-03   0.5547522568031991E-01  -0.3151225459019456E-03   0.5547522568031991E-01
 71     0.5265637806325457E-01   0.8181330972340807E-02   0.3523669689805779E-01   0.2350099931942232E-01   0.3523669689805779E-01   0.2350099931942232E-01
 72     0.5581380342457624E-01   0.8581903187874662E-02   0.4280658820521788E-01   0.1904865576246788E-01   0.4280658820521788E-01   0.1904865576246788E-01
 73     0.3776526048318552E-01   0.4185545399393119E-02   0.2956240579385374E-01   0.1206664700633568E-01   0.2956240579385374E-01   0.1206664700633568E-01
 74     0.6094737518102265E-01   0.9857804820935730E-02   0.4784261863346454E-01   0.1943060083010623E-01   0.4784261863346454E-01   0.1943060083010623E-01
 75     0.6143982978417121E-01   0.9313088671891793E-02   0.4903348934423678E-01   0.2478343133126979E-01   0.4903348934423678E-01   0.2478343133126979E-01
 76     0.6696806286081447E-01   0.1004215008149448E-01  -0.1552486857089510E+00   0.3790289823491902E+00  -0.1552486857089510E+00   0.3790289823491902E+00
 77     0.7360717705510325E-01   0.1091385483469576E-01   0.4909890515480013E-01   0.3826163884778148E-01   0.4909890515480013E-01   0.3826163884778148E-01
 78     0.8138010065570139E-01   0.1192429636605932E-01  -0.2692127134590787E-01   0.2257987465392005E+00  -0.2692127134590787E-01   0.2257987465392005E+00
 79     0.9052978294800458E-01   0.1310474562689534E-01   0.7066757367911636E-01   0.3408246275266567E-01   0.7066757367911636E-01   0.3408246275266567E-01
 80     0.1012654038283951E+00   0.1448149592476924E-01   0.4985744462472089E-01   0.9550778540874523E-01   0.4985744462472089E-01   0.9550778540874523E-01
 81     0.1134380796234045E+00   0.1602466209738792E-01   0.9067062849441668E-01   0.4232748149434826E-01   0.9067062849441668E-01   0.4232748149434826E-01
 82     0.1265081512149498E+00   0.1764586839918681E-01   0.1094018236950516E+00   0.3402947509010412E-01   0.1094018236950516E+00   0.3402947509010412E-01
 83     0.1399634525046179E+00   0.1926871404251010E-01   0.1242364644567927E+00   0.3389425983119866E-01   0.1242364644567927E+00   0.3389425983119866E-01
 84     0.1536894318982661E+00   0.2088824013312628E-01   0.1386865603524079E+00   0.3496398948753874E-01   0.1386865603524079E+00   0.3496398948753874E-01
 85     0.1677769782093138E+00   0.2253684866015755E-01   0.1533081516662609E+00   0.3645478015916159E-01   0.1533081516662609E+00   0.3645478015916159E-01
 86     0.1821322310865043E+00   0.2421472473285434E-01   0.1683875620034183E+00   0.3779661653956045E-01   0.1683875620034183E+00   0.3779661653956045E-01
 87     0.1963741104508678E+00   0.2587006139574196E-01   0.1835845155715418E+00   0.3882710134306391E-01   0.1835845155715418E+00   0.3882710134306391E-01
 88     0.2101937957856544E+00   0.2745986974039721E-01   0.1983620965358553E+00   0.3978658207353102E-01   0.1983620965358553E+00   0.3978658207353102E-01
 89     0.2235813447183212E+00   0.2899726679948312E-01   0.2125806876992342E+00   0.4086246388676890E-01   0.2125806876992342E+00   0.4086246388676890E-01
 90     0.2364988722461949E+00   0.3050794625925977E-01   0.2263142097973757E+00   0.4189779820932255E-01   0.2263142097973757E+00   0.4189779820932255E-01
 91     0.2729888618357941E+00   0.3610213820656349E-01   0.2621959092138111E+00   0.4742267114831343E-01   0.2621959092138111E+00   0.4742267114831343E-01
 92     0.2588935321286683E+00   0.3313853984324518E-01   0.2509130016718255E+00   0.4248949845226242E-01   0.2509130016718255E+00   0.4248949845226242E-01
 93     0.2738463330505728E+00   0.3544186105462571E-01   0.2666439224549526E+00   0.4366585168703500E-01   0.2666439224549526E+00   0.4366585168703500E-01
 94     0.2813248102177653E+00   0.3662528179209178E-01   0.2750314703512629E+00   0.4374006885659357E-01   0.2750314703512629E+00   0.4374006885659357E-01
 95     0.2879417698295340E+00   0.3783364597806126E-01   0.2824223044211137E+00   0.4394356885534343E-01   0.2824223044211137E+00   0.4394356885534343E-01
 96     0.2932788970278649E+00   0.3901231326720440E-01   0.2884899577394097E+00   0.4410733783996362E-01   0.2884899577394097E+00   0.4410733783996362E-01
 97     0.2959092410158293E+00   0.3992537736181932E-01   0.2917919667818762E+00   0.4407293076278723E-01   0.2917919667818762E+00   0.4407293076278723E-01
 98     0.2946248440836317E+00   0.4032219726503780E-01   0.2910264697311172E+00   0.4374601073650118E-01   0.2910264697311172E+00   0.4374601073650118E-01
 99     0.2896688905357136E+00   0.4015124608457567E-01   0.2863803794671483E+00   0.4314004912110459E-01   0.2863803794671483E+00   0.4314004912110459E-01
100     0.2824892357942465E+00   0.3956525640549451E-01   0.2793129519068123E+00   0.4237945901814879E-01   0.2793129519068123E+00   0.4237945901814879E-01
101     0.2744978534481365E+00   0.3875708976112633E-01   0.2712945693907042E+00   0.4157795169761219E-01   0.2712945693907042E+00   0.4157795169761219E-01
102     0.2663106004881203E+00   0.3784059129911117E-01   0.2630296231828951E+00   0.4073628201013459E-01   0.2630296231828951E+00   0.4073628201013459E-01
103     0.2579352458785351E+00   0.3684728255214240E-01   0.2546089366694978E+00   0.3977965352879219E-01   0.2546089366694978E+00   0.3977965352879219E-01
104     0.2494227014197263E+00   0.3579943882186887E-01   0.2461020346885040E+00   0.3870569180683089E-01   0.2461020346885040E+00   0.3870569180683089E-01
105     0.2412250918594835E+00   0.3477002651101196E-01   0.2379134489521565E+00   0.3764614434752740E-01   0.2379134489521565E+00   0.3764614434752740E-01
106     0.2337924626296500E+00   0.3383300811190113E-01   0.2304523317978580E+00   0.3672576374330677E-01   0.2304523317978580E+00   0.3672576374330677E-01
107     0.2270439705841830E+00   0.3298209527779406E-01   0.2236505438379466E+00   0.3592271978298604E-01   0.2236505438379466E+00   0.3592271978298604E-01
108     0.2205253945537470E+00   0.3214855206512801E-01   0.2170938858835265E+00   0.3511848742606579E-01   0.2170938858835265E+00   0.3511848742606579E-01
109     0.2131822002357203E+00   0.3119017171357989E-01   0.2097535620988339E+00   0.3416233146670111E-01   0.2097535620988339E+00   0.3416233146670111E-01
110     0.2076020598026729E+00   0.3042777724031148E-01   0.2041411927125358E+00   0.3339544024378996E-01   0.2041411927125358E+00   0.3339544024378996E-01
111     0.2019791017844781E+00   0.2966593842849339E-01   0.1984565637848839E+00   0.3268778194963023E-01   0.1984565637848839E+00   0.3268778194963023E-01
112     0.1971589967376515E+00   0.2900363525241586E-01   0.1935475124525395E+00   0.3210373541837807E-01   0.1935475124525395E+00   0.3210373541837807E-01
113     0.1926561959005109E+00   0.2837395372874096E-01   0.1889678589668200E+00   0.3153406917266816E-01   0.1889678589668200E+00   0.3153406917266816E-01
114     0.1883717088056914E+00   0.2775882325252857E-01   0.1846242407572343E+00   0.3095279733100402E-01   0.1846242407572343E+00   0.3095279733100402E-01
115     0.1846192756377293E+00   0.2720443085913238E-01   0.1807940968766880E+00   0.3044806395542145E-01   0.1807940968766880E+00   0.3044806395542145E-01
116     0.1816693402646478E+00   0.2675642969013176E-01   0.1777214639016934E+00   0.3009643323572279E-01   0.1777214639016934E+00   0.3009643323572279E-01
117     0.1793599442673253E+00   0.2639724343969791E-01   0.1752664978362773E+00   0.2985465260012406E-01   0.1752664978362773E+00   0.2985465260012406E-01
118     0.1773117167444559E+00   0.2607267280901110E-01   0.1730917903845041E+00   0.2961963175616876E-01   0.1730917903845041E+00   0.2961963175616876E-01
119     0.1754543445631676E+00   0.2577103724341089E-01   0.1711276500898735E+00   0.2937939464496664E-01   0.1711276500898735E+00   0.2937939464496664E-01
120     0.1740564692182450E+00   0.2553444764296052E-01   0.1696002540613704E+00   0.2922683842695519E-01   0.1696002540613704E+00   0.2922683842695519E-01
121     0.1731543058361859E+00   0.2537858306351317E-01   0.1685272714013111E+00   0.2920398756103207E-01   0.1685272714013111E+00   0.2920398756103207E-01
122     0.1721735470091494E+00   0.2523197448277500E-01   0.1673803393734265E+00   0.2919633765049293E-01   0.1673803393734265E+00   0.2919633765049293E-01
123     0.1703971562575914E+00   0.2499342905048213E-01   0.1655029704472302E+00   0.2904466362072442E-01   0.1655029704472302E+00   0.2904466362072442E-01
124     0.1678085757410796E+00   0.2464901394119177E-01   0.1628728863692511E+00   0.2874457236725169E-01   0.1628728863692511E+00   0.2874457236725169E-01
125     0.1652988111323202E+00   0.2430974637627172E-01   0.1603114764384875E+00   0.2847325271796554E-01   0.1603114764384875E+00   0.2847325271796554E-01
126     0.1639254481083486E+00   0.2411464532141218E-01   0.1588269183306044E+00   0.2840318163336639E-01   0.1588269183306044E+00   0.2840318163336639E-01
127     0.1618812481230841E+00   0.2382646896806733E-01   0.1567277765620047E+00   0.2819920871349673E-01   0.1567277765620047E+00   0.2819920871349673E-01
128     0.1651020714785336E+00   0.2422381001017149E-01   0.1597123839848255E+00   0.2875913675818905E-01   0.1597123839848255E+00   0.2875913675818905E-01
129     0.1656583582780311E+00   0.2425619437422625E-01   0.1601810328957262E+00   0.2885960872927349E-01   0.1601810328957262E+00   0.2885960872927349E-01
130     0.1664485698111463E+00   0.2432787330789085E-01   0.1608590054085239E+00   0.2903953961703201E-01   0.1608590054085239E+00   0.2903953961703201E-01
131     0.1668061505967408E+00   0.2435273090861781E-01   0.1611093102690517E+00   0.2919983711133332E-01   0.1611093102690517E+00   0.2919983711133332E-01
132     0.1666255345449954E+00   0.2430986239288312E-01   0.1608789288057229E+00   0.2925169667671801E-01   0.1608789288057229E+00   0.2925169667671801E-01
133     0.1657656145350739E+00   0.2417505934625783E-01   0.1600647595311434E+00   0.2911992535972181E-01   0.1600647595311434E+00   0.2911992535972181E-01
134     0.1642414663766684E+00   0.2395628575476352E-01   0.1586508849157041E+00   0.2884781192805209E-01   0.1586508849157041E+00   0.2884781192805209E-01
135     0.1622465638818812E+00   0.2368905093125002E-01   0.1567737781904292E+00   0.2853674581520878E-01   0.1567737781904292E+00   0.2853674581520878E-01
136     0.1599063914445066E+00   0.2338920008670742E-01   0.1545553522730910E+00   0.2819903655064779E-01   0.1545553522730910E+00   0.2819903655064779E-01
137     0.1571351574493193E+00   0.2303335059593355E-01   0.1519581172827955E+00   0.2774202477086950E-01   0.1519581172827955E+00   0.2774202477086950E-01
138     0.1538508701836875E+00   0.2260315800505886E-01   0.1489176546012577E+00   0.2711909306930035E-01   0.1489176546012577E+00   0.2711909306930035E-01
139     0.1502409426291691E+00   0.2213157952776395E-01   0.1455688107483479E+00   0.2642402303224605E-01   0.1455688107483479E+00   0.2642402303224605E-01
140     0.1466234892681381E+00   0.2167305088567194E-01   0.1421723711153599E+00   0.2577853171485587E-01   0.1421723711153599E+00   0.2577853171485587E-01
141     0.1430284806102243E+00   0.2122668181410381E-01   0.1387673160751604E+00   0.2516991907618071E-01   0.1387673160751604E+00   0.2516991907618071E-01
142     0.1390956808247039E+00   0.2072083178203608E-01   0.1350472709891895E+00   0.2446728691539046E-01   0.1350472709891895E+00   0.2446728691539046E-01
143     0.1344375462611821E+00   0.2008203336372992E-01   0.1306468418084459E+00   0.2358426305370438E-01   0.1306468418084459E+00   0.2358426305370438E-01
144     0.1290318387243676E+00   0.1930569036264366E-01   0.1255068998047696E+00   0.2257046235890626E-01   0.1255068998047696E+00   0.2257046235890626E-01
145     0.1215867138518581E+00   0.1829406169126887E-01   0.1183568684630951E+00   0.2131581789897688E-01   0.1183568684630951E+00   0.2131581789897688E-01
146     0.1178912542844828E+00   0.1768015165987218E-01   0.1147698775297517E+00   0.2062122490540202E-01   0.1147698775297517E+00   0.2062122490540202E-01
147     0.1120066378366908E+00   0.1684516169853173E-01   0.1090729378071055E+00   0.1962341713183288E-01   0.1090729378071055E+00   0.1962341713183288E-01
148     0.1070302274564059E+00   0.1613260151829025E-01   0.1042557673511396E+00   0.1875249792524175E-01   0.1042557673511396E+00   0.1875249792524175E-01
149     0.1024353853611322E+00   0.1547139846883278E-01   0.9978463470604777E-01   0.1796550704126269E-01   0.9978463470604777E-01   0.1796550704126269E-01
150     0.9824593498599804E-01   0.1486176788224779E-01   0.9566547477631830E-01   0.1729049387833453E-01   0.9566547477631830E-01   0.1729049387833453E-01
151     0.9446307477501603E-01   0.1430497566545798E-01   0.9192257377911199E-01   0.1669609788705115E-01   0.9192257377911199E-01   0.1669609788705115E-01
152     0.9107709172050281E-01   0.1380095081507488E-01   0.8858354057492215E-01   0.1612939939394578E-01   0.8858354057492215E-01   0.1612939939394578E-01
153     0.8815157451873662E-01   0.1335946929199835E-01   0.8570946962264658E-01   0.1560375568485652E-01   0.8570946962264658E-01   0.1560375568485652E-01
154     0.8583437602296914E-01   0.1300370049415019E-01   0.8340572060864163E-01   0.1519922643874409E-01   0.8340572060864163E-01   0.1519922643874409E-01
155     0.8421915681990770E-01   0.1274963720501066E-01   0.8173863961513041E-01   0.1496593076231604E-01   0.8173863961513041E-01   0.1496593076231604E-01
156     0.8326767768954939E-01   0.1259260161001180E-01   0.8069258975275025E-01   0.1486174109325407E-01   0.8069258975275025E-01   0.1486174109325407E-01
157     0.8295831149086524E-01   0.1252954244578560E-01   0.8026687299483870E-01   0.1484709889477961E-01   0.8026687299483870E-01   0.1484709889477961E-01
158     0.8343687748169995E-01   0.1258383044990806E-01   0.7719668105762631E-01   0.1999247545146703E-01   0.7719668105762631E-01   0.1999247545146703E-01
159     0.8490996125666292E-01   0.1278941932292947E-01   0.8179530314801509E-01   0.1533138746305106E-01   0.8179530314801509E-01   0.1533138746305106E-01
160     0.8737828108018945E-01   0.1314709492642258E-01   0.8390087986651265E-01   0.1591333389172957E-01   0.8390087986651265E-01   0.1591333389172957E-01
161     0.9060189086833942E-01   0.1361623573767728E-01   0.8662295106851411E-01   0.1673352741578116E-01   0.8662295106851411E-01   0.1673352741578116E-01
162     0.9445615050068190E-01   0.1417188686108160E-01   0.8986612397565720E-01   0.1771551585939682E-01   0.8986612397565720E-01   0.1771551585939682E-01
163     0.9208643768925892E-01   0.1357566140980720E-01   0.8701633625621251E-01   0.1773105700433051E-01   0.8701633625621251E-01   0.1773105700433051E-01
164     0.1048967030660983E+00   0.1570333285469321E-01   0.6358957296206459E-01   0.6217808642765440E-01   0.6358957296206459E-01   0.6217808642765440E-01
165     0.1103449333550261E+00   0.1641138729645615E-01   0.1025072885504598E+00   0.2267394409338683E-01   0.1025072885504598E+00   0.2267394409338683E-01
166     0.1186393121829976E+00   0.1758772975281672E-01  -0.6683322278339077E+00   0.6741313489939843E+00  -0.6683322278339077E+00   0.6741313489939843E+00
167     0.1280577132207627E+00   0.1890819504631152E-01   0.1177591097657762E+00   0.2716430447376392E-01   0.1177591097657762E+00   0.2716430447376392E-01
168     0.1390287174838596E+00   0.2043306109047275E-01   0.1271166549725349E+00   0.3006524407972479E-01   0.1271166549725349E+00   0.3006524407972479E-01
169     0.1520704003742570E+00   0.2223762739560769E-01   0.1381069194720013E+00   0.3376100177431960E-01   0.1381069194720013E+00   0.3376100177431960E-01
170     0.1671201380547567E+00   0.2430602795519281E-01   0.1507823350403404E+00   0.3810472819928376E-01   0.1507823350403404E+00   0.3810472819928376E-01
171     0.1834362543955919E+00   0.2651751706501832E-01   0.1649580631789095E+00   0.4234529131690172E-01   0.1649580631789095E+00   0.4234529131690172E-01
172     0.2002067666119489E+00   0.2874658788694547E-01   0.1802616409054099E+00   0.4592821166072945E-01   0.1802616409054099E+00   0.4592821166072945E-01
173     0.2170712542930112E+00   0.3094669299425051E-01   0.1962092635203510E+00   0.4907029472526701E-01   0.1962092635203510E+00   0.4907029472526701E-01
174     0.2339012686449713E+00   0.3311149180041448E-01   0.2123638161278650E+00   0.5223076175340715E-01   0.2123638161278650E+00   0.5223076175340715E-01
175     0.2502328268830100E+00   0.3517935636110756E-01   0.2283662036162053E+00   0.5522606248393841E-01   0.2283662036162053E+00   0.5522606248393841E-01
176     0.2652992467844428E+00   0.3703703869689084E-01   0.2438350118260650E+00   0.5737646929746868E-01   0.2438350118260650E+00   0.5737646929746868E-01
177     0.2786860037966085E+00   0.3862608254109139E-01   0.2584097420792199E+00   0.5842423565975526E-01   0.2584097420792199E+00   0.5842423565975526E-01
178     0.2906018555862395E+00   0.3999049376721318E-01   0.2718668726211963E+00   0.5886747313459082E-01   0.2718668726211963E+00   0.5886747313459082E-01
179     0.3011267097192032E+00   0.4116202113160962E-01   0.2839316915535734E+00   0.5915452944381987E-01   0.2839316915535734E+00   0.5915452944381987E-01
180     0.3093707704596837E+00   0.4202948662863630E-01   0.2938011382700925E+00   0.5900719708437213E-01   0.2938011382700925E+00   0.5900719708437213E-01
181     0.3173634791222651E+00   0.4298147690508541E-01   0.3035817970447219E+00   0.5837652799052512E-01   0.3035817970447219E+00   0.5837652799052512E-01
182     0.3126090236023810E+00   0.4195570455474983E-01   0.3013943780962157E+00   0.5492270409395170E-01   0.3013943780962157E+00   0.5492270409395170E-01
183     0.3095410009793256E+00   0.4141433178836162E-01   0.3004435464145246E+00   0.5199798887943978E-01   0.3004435464145246E+00   0.5199798887943978E-01
184     0.3030759040604407E+00   0.4046357212290370E-01   0.2957648865197545E+00   0.4898908950947399E-01   0.2957648865197545E+00   0.4898908950947399E-01
185     0.2944665810957545E+00   0.3929293238132565E-01   0.2886344056388382E+00   0.4604372305938717E-01   0.2886344056388382E+00   0.4604372305938717E-01
186     0.2830126878437209E+00   0.3777846864281562E-01   0.2784967489947511E+00   0.4285982482415501E-01   0.2784967489947511E+00   0.4285982482415501E-01
187     0.2690001857272496E+00   0.3595522321593050E-01   0.2655921789429290E+00   0.3959057783167645E-01   0.2655921789429290E+00   0.3959057783167645E-01
188     0.2549955144619321E+00   0.3420527395187333E-01   0.2523483011265499E+00   0.3683624154512097E-01   0.2523483011265499E+00   0.3683624154512097E-01
189     0.2443866802125368E+00   0.3302718314105327E-01   0.2421299039985800E+00   0.3512523795899562E-01   0.2421299039985800E+00   0.3512523795899562E-01
190     0.2382206623563671E+00   0.3254205653792817E-01   0.2360755543003678E+00   0.3446186934675444E-01   0.2360755543003678E+00   0.3446186934675444E-01