TITLE = "GEOMETRY"
VARIABLES="X0" "Y0" "Z0" "UNX0" "UNY0" "UNZ0" "ET1X" "ET1Y" "ET1Z" "ET2X" "ET2Y" "ET2Z" "AT1X" "AT1Y" "AT1Z" "AT2X" "AT2Y" "AT2Z" "A0"
ZONE T="BLADE" F=POINT, I=    80 J=    40
   0.1681005001343625E+00   0.1480930831970805E+00   0.1075316259264440E+00   0.7412543449154045E+00   0.3578412848512924E+00  -0.5678834484293503E+00  -0.6704254390177106E+00   0.4359687428833005E+00  -0.6003840320550379E+00   0.3273723968120324E-01   0.8257607826027650E+00   0.5630696254046427E+00  -0.1181750998114947E-02   0.7684769507018199E-03  -0.1058289837827252E-02  -0.3251598185649990E-03   0.2772762308600220E-02   0.1322776180343248E-02   0.2132012692557841E-04
   0.1653529359430772E+00   0.1498576269037525E+00   0.1050525234201869E+00   0.7419160831053370E+00   0.3544328098853646E+00  -0.5691554347508241E+00  -0.6699449408252425E+00   0.4261746463735919E+00  -0.6079053767248700E+00   0.2709800531952359E-01   0.8323175800528960E+00   0.5536362922014725E+00  -0.1565813193170319E-02   0.9960667559702277E-03  -0.1420812668429826E-02  -0.3312113452357199E-03   0.2778802220770878E-02   0.1298709649693121E-02   0.2826065656433562E-04
   0.1618403940792045E+00   0.1520488667109425E+00   0.1018475224086712E+00   0.7406150087024010E+00   0.3509414207403793E+00  -0.5730004608143577E+00  -0.6716244738896745E+00   0.4123365951367947E+00  -0.6155478034916646E+00   0.2024783833302201E-01   0.8407250748727072E+00   0.5410835180664079E+00  -0.1946728670702377E-02   0.1195173051219772E-02  -0.1784188343085809E-02  -0.3390728529386183E-03   0.2786411268086528E-02   0.1268314312045306E-02   0.3503757020080920E-04
   0.1575638650415122E+00   0.1545991633621741E+00   0.9792401463208161E-01   0.7358249664347162E+00   0.3478379921311355E+00  -0.5810080464171979E+00  -0.6770553909243224E+00   0.3938078780295290E+00  -0.6217003722229805E+00   0.1255453669641776E-01   0.8508372855205980E+00   0.5252792563734824E+00  -0.2329800366990008E-02   0.1355123600011783E-02  -0.2139319433503813E-02  -0.3488719570922463E-03   0.2795634700898227E-02   0.1231857750316288E-02   0.4158638536546015E-04
   0.1525139745135517E+00   0.1574217561976205E+00   0.9330903541033067E-01   0.7267397272153029E+00   0.3451031357741493E+00  -0.5939302943661624E+00  -0.6868991679091114E+00   0.3705772004236332E+00  -0.6251736332027710E+00   0.4347644511402764E-02   0.8623087406521122E+00   0.5063642303541700E+00  -0.2720090160970440E-02   0.1467469235434671E-02  -0.2475659788247129E-02  -0.3607348990491005E-03   0.2806674554740970E-02   0.1189418715474917E-02   0.4785100569740938E-04
   0.1466876642100524E+00   0.1604268275912500E+00   0.8803138584212361E-01   0.7171069387891479E+00   0.3412374860681398E+00  -0.6077126100735062E+00  -0.6969461103533793E+00   0.3449935272624924E+00  -0.6286856014020673E+00  -0.4874177238523444E-02   0.8743777468856809E+00   0.4852213908592319E+00  -0.3106220142528905E-02   0.1537602158194831E-02  -0.2801989779959938E-02  -0.3747546654668463E-03   0.2819658881652920E-02   0.1141056028623775E-02   0.5385609905212092E-04
   0.1401031154351366E+00   0.1635336161326733E+00   0.8210401782130115E-01   0.7088512003176661E+00   0.3356201278827444E+00  -0.6203943145840186E+00  -0.7051922717920805E+00   0.3181350089093565E+00  -0.6336355229238398E+00  -0.1529168443724786E-01   0.8866505770968708E+00   0.4621871033692499E+00  -0.3478328632386798E-02   0.1569186383228414E-02  -0.3125378240862516E-02  -0.3908502829121502E-03   0.2834546773621126E-02   0.1086851124542744E-02   0.5961478397427882E-04
   0.1327813162329448E+00   0.1666579825173348E+00   0.7554802802681032E-01   0.6994418505183717E+00   0.3288095036283794E+00  -0.6345592234512825E+00  -0.7142079537848245E+00   0.2889893148438818E+00  -0.6374889604193611E+00  -0.2623159343100988E-01   0.8990937026971786E+00   0.4369695839258697E+00  -0.3843470569805101E-02   0.1555180001433079E-02  -0.3430611553628324E-02  -0.4088747516197075E-03   0.2851278398523172E-02   0.1026765190612060E-02   0.6507150407862583E-04
   0.1247436890830428E+00   0.1697127047173175E+00   0.6839668327670925E-01   0.6901707224142462E+00   0.3203182130684699E+00  -0.6488918371337553E+00  -0.7226640887671505E+00   0.2583750214823229E+00  -0.6410920082798984E+00  -0.3769600414555575E-01   0.9113937626792447E+00   0.4098053447928989E+00  -0.4194156580096874E-02   0.1499542198549628E-02  -0.3720733196472734E-02  -0.4286735823244257E-03   0.2869735219899069E-02   0.9606693534295087E-03   0.7023238128500624E-04
   0.1160294954360849E+00   0.1726193131892251E+00   0.6067278652362110E-01   0.6826189088234668E+00   0.3097363123748155E+00  -0.6618873333982983E+00  -0.7290772231176383E+00   0.2269583094447345E+00  -0.6457060697446335E+00  -0.4977778668977711E-01   0.9233381518005410E+00   0.3807477240665113E+00  -0.4520037066861028E-02   0.1407066273357974E-02  -0.4003163556615416E-02  -0.4498441990547219E-03   0.2889695903324177E-02   0.8883258026137850E-03   0.7510989479381425E-04
   0.1066954872953843E+00   0.1753059004165484E+00   0.5238799797730870E-01   0.6774636224043793E+00   0.2969327421053233E+00  -0.6729591272763527E+00  -0.7328992201721684E+00   0.1947996560368285E+00  -0.6518526114690045E+00  -0.6246417685172966E-01   0.9348176510281281E+00   0.3495914557544120E+00  -0.4813971073839594E-02   0.1279520953965406E-02  -0.4281624989696984E-02  -0.4717617883824993E-03   0.2910828869026404E-02   0.8094383830031335E-03   0.7970182044870773E-04
   0.9682464272730446E-01   0.1777066151203121E+00   0.4352912226527220E-01   0.6774830877124570E+00   0.2816213132701167E+00  -0.6794895891591056E+00  -0.7315732099758770E+00   0.1622020624955443E+00  -0.6621866272945890E+00  -0.7627125480275448E-01   0.9457166207877528E+00   0.3159157622794516E+00  -0.5056873494240208E-02   0.1121193749798272E-02  -0.4577250722339523E-02  -0.4933873957049736E-03   0.2932735772927325E-02   0.7235714739557350E-03   0.8404715044479955E-04
   0.8646064932386355E-01   0.1797399954225614E+00   0.3415086498194675E-01   0.6715657330104507E+00   0.2646059298015864E+00  -0.6920860988056139E+00  -0.7356308310956009E+00   0.1264400584826540E+00  -0.6654774165608465E+00  -0.8858186376302668E-01   0.9560317011086719E+00   0.2795650906095530E+00  -0.5307119909200696E-02   0.9121865524510456E-03  -0.4801006560985931E-02  -0.5144247903246212E-03   0.2954847944278548E-02   0.6305577110682602E-03   0.8792247672081962E-04
   0.7560523028107559E-01   0.1813202281071255E+00   0.2438159692834726E-01   0.6629366563891274E+00   0.2452968368707250E+00  -0.7073503031997802E+00  -0.7419957324846004E+00   0.8934042076606670E-01  -0.6644250312804173E+00  -0.9978638479394565E-01   0.9653226150042062E+00   0.2412362459731031E+00  -0.5548299133587262E-02   0.6680461321129996E-03  -0.4968261492613555E-02  -0.5353178130018434E-03   0.2976403904183945E-02   0.5304594628597207E-03   0.9136272161206293E-04
   0.6428161870594983E-01   0.1823874809358684E+00   0.1433309010365425E-01   0.6524423991757942E+00   0.2234405195301130E+00  -0.7241500189807681E+00  -0.7498351406634256E+00   0.5183082518069636E-01  -0.6595914094250688E+00  -0.1098461541611467E+00   0.9733385329849020E+00   0.2013601813239259E+00  -0.5775312441538496E-02   0.3992066966299265E-03  -0.5080245332079458E-02  -0.5562615706355221E-03   0.2996516420593072E-02   0.4234130277516960E-03   0.9436583455508379E-04
   0.5252715738207731E-01   0.1829022027301710E+00   0.4107345681876690E-02   0.6414490336552144E+00   0.1990007071838222E+00  -0.7409061045524797E+00  -0.7578888741397792E+00   0.1464215209290482E-01  -0.6522193356818136E+00  -0.1189436491702246E+00   0.9798899560269138E+00   0.1602126162311934E+00  -0.5979148882334017E-02   0.1155150976726305E-03  -0.5145499089698098E-02  -0.5773518238122079E-03   0.3014213526649323E-02   0.3097408059304045E-03   0.9693934751695865E-04
   0.4038168828496768E-01   0.1828432889837641E+00  -0.6189670853277477E-02   0.6287365533468480E+00   0.1717764989485785E+00  -0.7584083206917598E+00  -0.7672492947574235E+00  -0.2170344759013179E-01  -0.6409816534480051E+00  -0.1265656595596228E+00   0.9848968447363772E+00   0.1181496468406327E+00  -0.6166320214775617E-02  -0.1744288440795050E-03  -0.5151517445456068E-02  -0.5985611330314548E-03   0.3028486667092753E-02   0.1897204567914288E-03   0.9904440323064672E-04
   0.2788655644346043E-01   0.1822076319511765E+00  -0.1644964209618988E-01   0.6154598451625851E+00   0.1418656877287711E+00  -0.7752956246733820E+00  -0.7768899972451075E+00  -0.5661782767968225E-01  -0.6270856032228219E+00  -0.1328574844445861E+00   0.9882654239798520E+00   0.7536803429160109E-01  -0.6328811626731627E-02  -0.4612281885081476E-03  -0.5108453797456334E-02  -0.6199171654908877E-03   0.3038311826033605E-02   0.6384412922350469E-04   0.1006832793089649E-03
   0.1509402773896828E-01   0.1810091876361614E+00  -0.2657854290294206E-01   0.6019182930353022E+00   0.1094247418093296E+00  -0.7910250276631137E+00  -0.7865753809613615E+00  -0.8971247481626143E-01  -0.6109425848046857E+00  -0.1378170474758368E+00   0.9899383302722969E+00   0.3207122826989544E-01  -0.6463717077760529E-02  -0.7372161265069080E-03  -0.5020447009295845E-02  -0.6413923516996548E-03   0.3042725629048150E-02  -0.6714872638435929E-04   0.1018433636973962E-03
   0.2060302305997548E-02   0.1792766161510874E+00  -0.3648915434283310E-01   0.5881176272866504E+00   0.7459517195823286E-01  -0.8053280181362389E+00  -0.7963239916465278E+00  -0.1206429747707022E+00  -0.5927169416902275E+00  -0.1413709899620903E+00   0.9898893033864936E+00  -0.1155033497960949E-01  -0.6570008355210205E-02  -0.9953553585671168E-03  -0.4890164430595194E-02  -0.6628903160374843E-03   0.3040862893831771E-02  -0.2024315380579414E-03   0.1025088191790300E-03
  -0.1115579106732512E-01   0.1770516449034115E+00  -0.4610151921811362E-01   0.5741617468034471E+00   0.3761577282205540E-01  -0.8178773393013246E+00  -0.8060653836196564E+00  -0.1491330310488158E+00  -0.5727285014562217E+00  -0.1435161518356407E+00   0.9881014080979706E+00  -0.5530570926312083E-01  -0.6646085018112459E-02  -0.1229615889108707E-02  -0.4722200444685333E-02  -0.6843521700412118E-03   0.3032011950024047E-02  -0.3409770038523899E-03   0.1026682045782288E-03
  -0.2449886826673274E-01   0.1743900060871813E+00  -0.5533659297735732E-01   0.5590610323851546E+00  -0.1600149018914263E-02  -0.8291249613849304E+00  -0.8165459634235581E+00  -0.1746026438461432E+00  -0.5502423160559627E+00  -0.1438869406344382E+00   0.9846376776688236E+00  -0.9892012954807287E-01  -0.6696992181295165E-02  -0.1432022927121544E-02  -0.4512873314558364E-02  -0.7057524832523501E-03   0.3015602926678150E-02  -0.4816935257779386E-03   0.1023060404468973E-03
  -0.3791426605879039E-01   0.1713591687526823E+00  -0.6412209260831134E-01   0.5433568599754197E+00  -0.4269101660594425E-01  -0.8384156486008615E+00  -0.8273012922631290E+00  -0.1968772506371784E+00  -0.5261291856581445E+00  -0.1426039779859206E+00   0.9794982518017562E+00  -0.1422929379129353E+00  -0.6718405610762486E-02  -0.1598814407377497E-02  -0.4272626316395653E-02  -0.7270387599657875E-03   0.2991231023501850E-02  -0.6234857279492686E-03   0.1014232182856467E-03
  -0.5131509454644147E-01   0.1680171786156658E+00  -0.7243794564901168E-01   0.5317096299208558E+00  -0.8344047133998536E-01  -0.8428063580633380E+00  -0.8350346512336992E+00  -0.2178270014117758E+00  -0.5052410599852001E+00  -0.1414284295622374E+00   0.9724140502885154E+00  -0.1854963991915852E+00  -0.6682422876888597E-02  -0.1743175729638932E-02  -0.4043226724304697E-02  -0.7480357019332591E-03   0.2958975832771479E-02  -0.7648686062287080E-03   0.1000328736295657E-03
  -0.6461217643272500E-01   0.1644219463520539E+00  -0.8027464523992014E-01   0.5196961587884132E+00  -0.1250189278857039E+00  -0.8451545244574377E+00  -0.8429617091284056E+00  -0.2360231629571395E+00  -0.4834341976846743E+00  -0.1390376189521581E+00   0.9636717979779302E+00  -0.2280465002978510E+00  -0.6614659009394931E-02  -0.1852056533973023E-02  -0.3793472866603764E-02  -0.7685414497013536E-03   0.2919177771542381E-02  -0.9044032688296545E-03   0.9812524058090553E-04
  -0.7773894005265905E-01   0.1606438554214297E+00  -0.8760016428720005E-01   0.5077721065027222E+00  -0.1669255655898633E+00  -0.8451646841949162E+00  -0.8507471113475314E+00  -0.2516188386554989E+00  -0.4614296398883464E+00  -0.1356349526914772E+00   0.9533225139406718E+00  -0.2697764704755004E+00  -0.6512104610539124E-02  -0.1926034396651177E-02  -0.3532046180676141E-02  -0.7884468464822297E-03   0.2872215653956928E-02  -0.1040977640321784E-02   0.9571031505233886E-04
  -0.9062562088066022E-01   0.1567524421651438E+00  -0.9439592432709644E-01   0.4959256182611875E+00  -0.2087991248927004E+00  -0.8428883120534425E+00  -0.8583797986951766E+00  -0.2646515552314882E+00  -0.4394811435153761E+00  -0.1313084244985337E+00   0.9414682574349478E+00  -0.3104764369450859E+00  -0.6374576217462031E-02  -0.1965378859634694E-02  -0.3263713859220248E-02  -0.8076809205986614E-03   0.2818726289689800E-02  -0.1173461807882113E-02   0.9280273220932544E-04
  -0.1032033192857625E+00   0.1528167170089756E+00  -0.1006512179215333E+00   0.4839294522257637E+00  -0.2504054858439619E+00  -0.8385161763065289E+00  -0.8659783782482376E+00  -0.2750674964712588E+00  -0.4176353921683196E+00  -0.1260703520857479E+00   0.9282429450549481E+00  -0.3499589994280646E+00  -0.6203122187640256E-02  -0.1970346296533525E-02  -0.2991579735216576E-02  -0.8261569697641802E-03   0.2759508410158977E-02  -0.1300866655633941E-02   0.8942168893788719E-04
  -0.1154073454591662E+00   0.1489063433000589E+00  -0.1063589529520714E+00   0.4711049084506195E+00  -0.2917897377337341E+00  -0.8324175119415810E+00  -0.8739093128472372E+00  -0.2825254373145719E+00  -0.3955526389610864E+00  -0.1197609208072612E+00   0.9138042056280375E+00  -0.3880968894798157E+00  -0.6000903985763473E-02  -0.1940027412383173E-02  -0.2716155295321553E-02  -0.8437861834524260E-03   0.2695463149097126E-02  -0.1422387541188997E-02   0.8559254761201345E-04
  -0.1271882522396234E+00   0.1451006522839401E+00  -0.1115029783002858E+00   0.4546560382896822E+00  -0.3341819260110200E+00  -0.8255969520136905E+00  -0.8836676359685375E+00  -0.2852293683558650E+00  -0.3711815143148844E+00  -0.1114423437859573E+00   0.8983132236335383E+00  -0.4249870071621167E+00  -0.5780002794693651E-02  -0.1865663603735628E-02  -0.2427870052892873E-02  -0.8605642862110491E-03   0.2627478933680226E-02  -0.1537453253160622E-02   0.8135862908006773E-04
  -0.1384861150109396E+00   0.1414650876167053E+00  -0.1160877106567468E+00   0.4393451002662553E+00  -0.3748438204151078E+00  -0.8163749096883371E+00  -0.8924022740956384E+00  -0.2862457076987530E+00  -0.3488288635032559E+00  -0.1029274699046230E+00   0.8817910779320953E+00  -0.4602721269188331E+00  -0.5517859976622574E-02  -0.1769901063499175E-02  -0.2156862303568128E-02  -0.8764163829054206E-03   0.2556639410465127E-02  -0.1645554893618676E-02   0.7672136112959014E-04
  -0.1492240157760875E+00   0.1380424547463311E+00  -0.1201435763512502E+00   0.4240922214386925E+00  -0.4139931195255204E+00  -0.8054535894145132E+00  -0.9007227255299755E+00  -0.2851803573893176E+00  -0.3276747403648220E+00  -0.9404445453639194E-01   0.8644546608960063E+00  -0.4938357822455997E+00  -0.5220040788525400E-02  -0.1652731806874953E-02  -0.1899003390935225E-02  -0.8912090432850947E-03   0.2484307195000944E-02  -0.1746147670002328E-02   0.7171668044606378E-04
  -0.1593431770603206E+00   0.1348831251538051E+00  -0.1236856182465916E+00   0.4055808677310223E+00  -0.4531299004564646E+00  -0.7938371703585475E+00  -0.9102022858818463E+00  -0.2799091693306189E+00  -0.3052583425561120E+00  -0.8388062056287368E-01   0.8463593505343682E+00  -0.5259656749798697E+00  -0.4899120495707628E-02  -0.1506597785651070E-02  -0.1643038504406173E-02  -0.9048921997435247E-03   0.2411721184338370E-02  -0.1838953879047579E-02   0.6640465707877394E-04
  -0.1688005511403617E+00   0.1320441049947139E+00  -0.1267171323174493E+00   0.3821739316639123E+00  -0.4928531884067377E+00  -0.7816897214584954E+00  -0.9212656641319619E+00  -0.2692950183795229E+00  -0.2806238927238159E+00  -0.7219876763520663E-01   0.8273910367856817E+00  -0.5569662558886959E+00  -0.4558253584333545E-02  -0.1332422373440154E-02  -0.1388475566451525E-02  -0.9174837154034068E-03   0.2339994312564403E-02  -0.1923924512846731E-02   0.6083622678346063E-04
  -0.1775529776006234E+00   0.1295735562813644E+00  -0.1292466468886398E+00   0.3537290271460216E+00  -0.5328457760007268E+00  -0.7687334741979903E+00  -0.9334595629024784E+00  -0.2533026051160274E+00  -0.2539508508891979E+00  -0.5940555344614583E-01   0.8074114002413003E+00  -0.5869904692413157E+00  -0.4194172875928055E-02  -0.1138126339909326E-02  -0.1141039004738977E-02  -0.9289936315718048E-03   0.2270253990801482E-02  -0.2001093115625026E-02   0.5504716621023420E-04
  -0.1855598019583888E+00   0.1275124896705658E+00  -0.1312841373507517E+00   0.3165417003770599E+00  -0.5743993648118703E+00  -0.7548951726075082E+00  -0.9475020147682385E+00  -0.2293647269739257E+00  -0.2227818530094077E+00  -0.4518057029884041E-01   0.7857844435491813E+00  -0.6168480561236901E+00  -0.3812651481837348E-02  -0.9229402708893011E-03  -0.8964514573729446E-03  -0.9394070414014966E-03   0.2203571557520149E-02  -0.2070607498772796E-02   0.4911127949787111E-04
  -0.1928020484941296E+00   0.1259142154747477E+00  -0.1328208231525296E+00   0.2603034969706300E+00  -0.6210881467314252E+00  -0.7392507040609326E+00  -0.9651034533942840E+00  -0.1900419999735087E+00  -0.1801648203520758E+00  -0.2859044790289315E-01   0.7603509401820928E+00  -0.6488829124371511E+00  -0.3429595053903500E-02  -0.6753339249287726E-03  -0.6402343444050010E-03  -0.9488641075568460E-03   0.2140857473385924E-02  -0.2132772870214801E-02   0.4319549121814083E-04
  -0.1992741176776792E+00   0.1248355429651259E+00  -0.1338372746514030E+00   0.1779866923472202E+00  -0.6726807106670811E+00  -0.7182070723988497E+00  -0.9839616751766500E+00  -0.1304430843275944E+00  -0.1216717861078105E+00  -0.1183888216246284E-01   0.7283441928425974E+00  -0.6851091720460386E+00  -0.3042474129646144E-02  -0.4033385846930540E-03  -0.3762171544683321E-03  -0.9575069944703501E-03   0.2082829095207801E-02  -0.2188091038366778E-02   0.3744409328731172E-04
  -0.2050488610988781E+00   0.1244056151873527E+00  -0.1342381250900769E+00   0.1326451576937494E-01  -0.7378322369607901E+00  -0.6748537935900193E+00  -0.9999120188542521E+00  -0.9730685703133497E-02  -0.9014893596745979E-02   0.8468894745878391E-04   0.6749139973783201E+00  -0.7378963944691687E+00  -0.2732269291552680E-02  -0.2658919308009405E-04  -0.2463328420557187E-04  -0.9657991816970218E-03   0.2029459579164151E-02  -0.2237835178428779E-02   0.3301876620049433E-04
  -0.2110740192489519E+00   0.1256635336372389E+00  -0.1330494814779325E+00  -0.4641893480703433E+00  -0.7594781136561055E+00  -0.4557644611149418E+00  -0.8811599949506327E+00   0.3437275890017610E+00   0.3246666103214766E+00  -0.8991836540235108E-01   0.5523081924400544E+00  -0.8287764162468484E+00  -0.3292888858521151E-02   0.1284507642966302E-02   0.1213276896349924E-02  -0.9780263792169980E-03   0.1973337499606355E-02  -0.2292230534798281E-02   0.4600357557152246E-04
  -0.2152738247683788E+00   0.1300084080428010E+00  -0.1287456317317890E+00  -0.9260092168313075E+00  -0.3663578050094381E+00   0.9104333612151311E-01  -0.2041239633635588E+00   0.6888110229480551E+00   0.6956096478960067E+00  -0.3175536772330322E+00   0.6255568186615189E+00  -0.7126277630726008E+00  -0.9069166609057752E-03   0.3060366762595718E-02   0.3090572849793648E-02  -0.9972123193721719E-03   0.1940159546521422E-02  -0.2335538383181204E-02   0.5677614529314469E-04
  -0.2156063149664840E+00   0.1352107095624510E+00  -0.1233061766198940E+00  -0.9411445622691640E+00  -0.1012449988266787E+00   0.3224846711454197E+00   0.1778222781285398E+00   0.6630678472665271E+00   0.7271315337148498E+00  -0.2874476479506484E+00   0.7416808478947797E+00  -0.6060390825299312E+00   0.5744264628005716E-03   0.2141934757054327E-02   0.2348882262101327E-02  -0.1014028411749572E-02   0.1947707711130821E-02  -0.2347868685004775E-02   0.4081803378936227E-04
  -0.2138944768516557E+00   0.1395049626662736E+00  -0.1184216068909958E+00  -0.9143452978106552E+00   0.6187400597404775E-02   0.4048881233691494E+00   0.3235792382252201E+00   0.6123073645533853E+00   0.7213710334517696E+00  -0.2434525681957998E+00   0.7905956029396667E+00  -0.5618624739661250E+00   0.1137411652027756E-02   0.2152318346768226E-02   0.2535687466796801E-02  -0.1024284578286197E-02   0.1973705017652178E-02  -0.2343269255433950E-02   0.4395783741815138E-04
  -0.2111446560795031E+00   0.1438675260627068E+00  -0.1130735342905154E+00  -0.8882208335790840E+00   0.7027451145990368E-01   0.4540101803210463E+00   0.4109525268296556E+00   0.5633221598264310E+00   0.7167887868408699E+00  -0.2053820135464600E+00   0.8232433645572594E+00  -0.5292339664307696E+00   0.1612409120124877E-02   0.2210245049665029E-02   0.2812385133683676E-02  -0.1032642571521372E-02   0.2010143316507430E-02  -0.2331393724364125E-02   0.4866469332619125E-04
  -0.2074683114791494E+00   0.1483224290519419E+00  -0.1071538438587409E+00  -0.8637675435958783E+00   0.1151354484604096E+00   0.4905603521873359E+00   0.4740776867556713E+00   0.5155889095094881E+00   0.7137355415776970E+00  -0.1707512153711775E+00   0.8490653125046608E+00  -0.4999321129419759E+00   0.2063935480228818E-02   0.2244657939570044E-02   0.3107305298090824E-02  -0.1039489525610476E-02   0.2056041155548152E-02  -0.2312866356949324E-02   0.5362711990223272E-04
  -0.2029045272917753E+00   0.1528104738149781E+00  -0.1006399153055853E+00  -0.8412092739387189E+00   0.1473921683171970E+00   0.5202331267405493E+00   0.5225384433302624E+00   0.4689307217556744E+00   0.7120797381162368E+00  -0.1389983189879631E+00   0.8708498877030745E+00  -0.4714869461671904E+00   0.2499848707145230E-02   0.2243386823466108E-02   0.3406623255064717E-02  -0.1044811795952130E-02   0.2110805993643848E-02  -0.2287477639172121E-02   0.5859382848633164E-04
  -0.1974825045789451E+00   0.1572553207783114E+00  -0.9353162380957965E-01  -0.8202232405192961E+00   0.1707047332742771E+00   0.5459796056170805E+00   0.5614597156018094E+00   0.4229834300195472E+00   0.7112299246272152E+00  -0.1095300117244594E+00   0.8899128676261833E+00  -0.4427846706526583E+00   0.2922174005685022E-02   0.2201460139867294E-02   0.3701668240940967E-02  -0.1048518081352035E-02   0.2173792952133900E-02  -0.2254838151190180E-02   0.6344905143997334E-04
  -0.1912244587162345E+00   0.1615707412478780E+00  -0.8585111618811923E-01  -0.7995648631538678E+00   0.1883817437313663E+00   0.5702704167659991E+00   0.5950463083197512E+00   0.3770841159478953E+00   0.7097375997189594E+00  -0.8133830933067254E-01   0.9068185530350182E+00  -0.4135990707275631E+00   0.3335871857025552E-02   0.2113960329699252E-02   0.3978839380519447E-02  -0.1050536886375103E-02   0.2244292655982805E-02  -0.2214311155979691E-02   0.6809026544112808E-04
  -0.1841537210701911E+00   0.1656704108475910E+00  -0.7763435319495535E-01  -0.7796869724192942E+00   0.2004078987652183E+00   0.5932325843648043E+00   0.6237588631768344E+00   0.3316327351053630E+00   0.7077744058772395E+00  -0.5489176302486469E-01   0.9218765660971354E+00  -0.3835759262948810E+00   0.3734865789017876E-02   0.1985709270013701E-02   0.4237923612644433E-02  -0.1050767252330921E-02   0.2321412119814799E-02  -0.2165253387358672E-02   0.7252926602880834E-04
  -0.1763061016477322E+00   0.1694776070540527E+00  -0.6891655350768702E-01  -0.7611601045137844E+00   0.2066521127094905E+00   0.6147602781648053E+00   0.6478436720667912E+00   0.2869218267623096E+00   0.7056730417767105E+00  -0.3055931706666177E-01   0.9353987222784107E+00  -0.3522717111837623E+00   0.4112753633440977E-02   0.1821486936448076E-02   0.4479876074623905E-02  -0.1049172540189672E-02   0.2404113303979417E-02  -0.2107168305784439E-02   0.7676865419738587E-04
  -0.1677067683986007E+00   0.1729142932802848E+00  -0.5976273594093645E-01  -0.7405847237349904E+00   0.2113409477592722E+00   0.6378630501687493E+00   0.6719328763351282E+00   0.2419004225052562E+00   0.6999931394605092E+00  -0.6362127817739475E-02   0.9470053798115358E+00  -0.3211546884877124E+00   0.4486579615690572E-02   0.1615199289784000E-02   0.4673941492126662E-02  -0.1045653966346025E-02   0.2491155384392749E-02  -0.2039432278445651E-02   0.8068005511548326E-04
  -0.1583673053785702E+00   0.1759058174805707E+00  -0.5027224080559545E-01  -0.7180314546033508E+00   0.2139476565357335E+00   0.6623120340617887E+00   0.6958017235685980E+00   0.1973361330010966E+00   0.6905927975957625E+00   0.1705261502422557E-01   0.9567052058366994E+00  -0.2905586987956035E+00   0.4852883404339904E-02   0.1376324910501922E-02   0.4816553643214332E-02  -0.1040040414905401E-02   0.2581029110299032E-02  -0.1961291347212029E-02   0.8429179086997745E-04
  -0.1483270241821046E+00   0.1784029030066460E+00  -0.4052036722561628E-01  -0.6973219800942476E+00   0.2106834385948727E+00   0.6850945517074838E+00   0.7157749815768468E+00   0.1546464029000825E+00   0.6809924124531270E+00   0.3752641504463568E-01   0.9652445176077955E+00  -0.2586402702635300E+00   0.5187397792125695E-02   0.1120760615573348E-02   0.4935319936764845E-02  -0.1032308318669795E-02   0.2672169766787059E-02  -0.1872490727916743E-02   0.8768762219859301E-04
  -0.1376391161895469E+00   0.1803728582859164E+00  -0.3057416240723215E-01  -0.6763035116501832E+00   0.2039745353734859E+00   0.7078191499590846E+00   0.7344747298870824E+00   0.1133916670478025E+00   0.6690958085367279E+00   0.5621771328440685E-01   0.9723871239189106E+00  -0.2265013243885814E+00   0.5500510200432025E-02   0.8491946636970324E-03   0.5010884881619279E-02  -0.1022473190718125E-02   0.2762981616537728E-02  -0.1773164940510795E-02   0.9079204677427420E-04
  -0.1263487206636258E+00   0.1817910931245658E+00  -0.2052080592440711E-01  -0.6550622063453219E+00   0.1938669410169446E+00   0.7302801619917739E+00   0.7520403559981079E+00   0.7391185691787681E-01   0.6549598005657983E+00   0.7299869018165954E-01   0.9782395650287734E+00  -0.1942126274063514E+00   0.5789885325489026E-02   0.5690401749524412E-03   0.5042471601205767E-02  -0.1010516746139431E-02   0.2851788343527749E-02  -0.1663496935955628E-02   0.9358902512704429E-04
  -0.1145015874604916E+00   0.1826475761116413E+00  -0.1045365968917424E-01  -0.6329910115974025E+00   0.1809238865858669E+00   0.7527210150511020E+00   0.7691457750788442E+00   0.3649931932571576E-01   0.6380302315463769E+00   0.8796110455912402E-01   0.9828195902358804E+00  -0.1622605840409649E+00   0.6057247877645226E-02   0.2874428121229997E-03   0.5024674634027103E-02  -0.9964395395664245E-03   0.2936893964071298E-02  -0.1543854255932072E-02   0.9605638079801076E-04
  -0.1021448100488319E+00   0.1829476101808425E+00  -0.4686606180223871E-03  -0.6103672950903456E+00   0.1650263888617171E+00   0.7747374110389638E+00   0.7856689939215602E+00   0.1570364933985032E-02   0.6186451050030686E+00   0.1008761472022923E+00   0.9862879016459827E+00  -0.1306146163045546E+00   0.6299529534014494E-02   0.1259125707817749E-04   0.4960324437124746E-02  -0.9802423589282162E-03   0.3016631694032122E-02  -0.1414842882924616E-02   0.9817882891618026E-04
  -0.8933426104162298E-01   0.1827115642917762E+00   0.9349083308778799E-02  -0.5879790341965800E+00   0.1458895237314494E+00   0.7956110244401267E+00   0.8011493906947271E+00  -0.3059359581978790E-01   0.5976819268509656E+00   0.1115361337626710E+00   0.9888277295667969E+00  -0.9889091012347520E-01   0.6511019473194376E-02  -0.2486371461444190E-03   0.4857419489676441E-02  -0.9619459488186370E-03   0.3089504849183876E-02  -0.1277421264573763E-02   0.9993149983859242E-04
  -0.7610571637967911E-01   0.1819772283660162E+00   0.1888596451729438E-01  -0.5608397927239080E+00   0.1263794064695997E+00   0.8182218357620357E+00   0.8190982642346859E+00  -0.5922345151609713E-01   0.5705879566887521E+00   0.1205684885246911E+00   0.9902125167916795E+00  -0.7030228420157664E-01   0.6717525188749490E-02  -0.4856987796156287E-03   0.4679461718839135E-02  -0.9415024727744345E-03   0.3153884153249173E-02  -0.1132477793358300E-02   0.1013368684814526E-03
  -0.6249877865665346E-01   0.1807980463642704E+00   0.2803723183245926E-01  -0.5341622096923488E+00   0.1035846756942823E+00   0.8390118882935435E+00   0.8358207050756659E+00  -0.8413310028906029E-01   0.5425176222046321E+00   0.1267851832960145E+00   0.9910559199142405E+00  -0.4163749391515680E-01   0.6889412534276169E-02  -0.6934832221301493E-03   0.4471805596325749E-02  -0.9188965344547988E-03   0.3208334402621950E-02  -0.9811232634756402E-03   0.1023408617568708E-03
  -0.4858844988195406E-01   0.1792339873439466E+00   0.3675449633361308E-01  -0.5088184784865499E+00   0.7759779233618479E-01   0.8573694294615261E+00   0.8509414617515974E+00  -0.1055145819879249E+00   0.5145534973741488E+00   0.1303931923939554E+00   0.9913855232009714E+00  -0.1234340977400968E-01   0.7020916240423229E-02  -0.8705757981936763E-03   0.4245458904828069E-02  -0.8942558121836884E-03   0.3252093395373384E-02  -0.8250459199710281E-03   0.1028922054350371E-03
  -0.3444886163043199E-01   0.1773501688290733E+00   0.4499399763434361E-01  -0.4833394985198826E+00   0.4952556241104781E-01   0.8740309764753295E+00   0.8654670808203251E+00  -0.1231870515736586E+00   0.4855838571667448E+00   0.1317181125999505E+00   0.9911468957689664E+00   0.1667842380588068E-01   0.7118672011098844E-02  -0.1013242716679651E-02   0.3994042395902467E-02  -0.8677089786694424E-03   0.3284679118461510E-02  -0.6659645012127881E-03   0.1029865261478343E-03